# vtk DataFile Version 3.0
vtk output
ASCII
DATASET POLYDATA
POINTS 1001 float
-3.13182 29.8049 1.00549 -3.18051 29.0042 5.38092 4.27122 31.5611 6.16429 
-42.83 18.2186 3.39679 -41.7677 18.7367 -3.07911 -44.2486 13.3258 -0.381315 
-17.9792 -28.09 -14.5362 -17.7315 -29.8367 -16.0569 -20.345 -29.788 -14.611 
-42.3592 -0.157633 -1.05405 -42.6703 -0.0653603 3.35274 -43.0567 3.05531 3.37037 
-33.695 45.4712 -33.3232 -29.9093 47.4341 -38.6106 -30.1123 46.2034 -35.3451 
-32.8547 -29.7277 -6.03788 -33.4532 -28.0975 -6.19504 -31.8019 -28.727 -9.5404 
-29.4571 60.4512 -37.2207 -31.3679 59.2575 -30.9108 -27.2153 54.4635 -30.3858 
-8.57358 61.2557 -7.98873 -17.3751 55.5294 -4.31409 -10.5657 57.8486 -5.59353 
2.34536 27.5125 13.9168 -5.67535 26.7618 9.31716 4.32731 30.6579 9.451 
9.46694 31.4462 10.7721 -44.6378 5.6614 0.893694 -44.6846 10.5508 2.47609 
-43.8472 4.40637 -3.81149 11.105 32.9987 3.04345 -29.1646 64.3265 -42.5707 
-26.6852 62.2643 -45.5729 -32.4239 49.8388 -7.93287 -34.6249 49.5054 -8.47479 
-34.3599 48.4393 -4.03752 16.1774 32.2758 9.42408 11.4402 29.656 13.9003 
9.4845 28.0263 15.8594 -24.6009 47.3739 13.1444 -24.3714 45.03 14.9441 
-22.0261 46.0814 10.7336 4.41181 31.7803 -0.97505 -5.53415 9.03791 -22.127 
-4.21072 15.7482 -21.388 -2.49573 10.4497 -22.39 -22.2832 48.2589 1.5192 
-22.8857 47.6698 8.86074 -20.2298 45.1294 3.22885 -42.1145 41.1079 -1.93806 
-40.3426 40.2135 -5.26424 -42.3937 37.7628 -4.67912 -30.8528 53.0629 -15.1683 
-28.905 49.0251 -12.062 -38.4658 37.6878 24.8426 -41.7808 32.1648 25.7541 
-36.7078 33.2089 27.697 -19.2425 -20.4885 4.33567 -20.5109 -17.6678 8.84411 
-19.1743 -16.3852 3.59649 -33.7931 62.1055 -35.3788 -29.6903 -23.5825 -7.51451 
-23.7838 -20.4865 -7.75141 -29.8001 -25.3063 -10.1402 -43.2075 19.6239 5.20425 
-42.3634 19.0393 -1.03803 -45.9669 41.5452 7.38193 -44.8457 42.6064 0.868414 
-45.8402 39.5478 3.96413 -32.9533 49.1163 4.3242 -28.3107 48.0739 -3.44126 
-33.4926 57.2059 -22.2184 -36.1366 56.1576 -22.792 -35.9531 52.4122 -15.2129 
-44.5273 13.2531 5.34875 -6.57129 29.4859 3.65329 -11.6206 29.8115 6.67786 
-37.3397 28.0994 27.1205 -34.863 30.2242 27.5626 -39.1851 29.4388 27.3762 
41.6164 5.60764 -7.33283 39.5336 14.688 -5.62079 42.0928 8.67216 -1.818 
-5.35336 28.7089 -5.1 -29.208 2.31958 -18.6871 -30.1462 11.746 -16.8795 
-28.6045 9.12223 -18.356 -46.1766 21.6705 2.11737 -33.0963 39.6414 23.5088 
-36.8989 43.0486 20.7704 49.7888 -18.7374 1.38579 52.091 -12.3396 0.184701 
51.1515 -14.0851 6.22541 -32.7044 26.9284 28.1546 -36.2974 24.9323 27.3845 
14.7997 33.1389 -2.44759 17.753 33.2758 3.53291 21.4664 31.6526 -5.48588 
-7.14548 -28.949 8.72161 -9.92937 -29.1847 15.846 -6.56264 -29.61 4.3661 
-32.546 23.8327 27.5741 -25.1678 -6.4124 -16.1591 -18.1775 -1.72968 -18.4362 
-18.1199 -4.22052 -16.817 15.8794 31.9829 -6.95546 -30.6134 50.8085 -42.2891 
-29.0755 54.9204 -44.7454 -26.4016 56.2242 -45.7539 -22.8314 -10.4327 -11.3159 
-19.6767 -7.37506 -15.2382 -19.636 39.0751 -4.73553 -18.4185 40.9054 -3.53075 
-18.9829 41.1962 -0.446711 18.124 -26.398 14.73 13.8764 -26.0386 15.9846 
17.6438 -26.2206 12.5621 11.726 -2.98275 31.5766 11.4378 1.06351 30.5782 
8.65043 -0.0416398 30.4826 15.2202 20.2771 20.6387 16.8359 24.4151 17.9714 
12.6309 23.9784 19.3308 50.975 -12.5436 -3.53428 47.8698 -12.7317 -7.64058 
49.8815 -8.08803 -4.56132 -29.322 18.8783 17.8227 -34.7318 16.4425 17.4042 
-35.7493 12.7325 17.5593 -31.491 32.8164 25.2048 12.9369 12.651 -21.7022 
17.584 12.5009 -20.5979 14.2616 9.91534 -26.6731 7.02107 31.2827 -6.77844 
45.7026 -18.2072 -8.29594 48.9067 -18.862 -3.11405 38.488 17.7216 1.55384 
40.7616 12.4442 2.08021 -47.6443 25.9733 3.33566 -48.0917 27.6027 7.84101 
-46.7483 32.0095 1.42957 41.4408 -1.62746 -7.50361 42.3324 -1.60387 -4.54327 
38.7041 -12.6197 -9.15379 -28.5694 13.815 20.5208 -33.1095 9.5401 20.5577 
19.016 -12.973 27.4851 15.31 -11.4982 30.0494 13.0561 -14.0461 28.5637 
18.7518 -23.1231 22.4918 17.4991 -21.4488 25.2624 10.2043 -22.1488 23.6673 
12.9427 -24.286 23.4436 51.1056 -5.96655 1.22502 51.9976 -8.57618 3.49368 
-30.3938 9.18491 20.8569 -30.8788 4.0647 21.5111 -27.9413 6.17556 22.7734 
17.4988 -3.45642 30.0207 15.3316 -0.700509 29.5836 14.4113 -6.70432 29.4639 
19.736 -9.87583 28.3772 -23.4394 38.3195 -8.97455 -20.805 41.4153 -6.78549 
37.8031 18.0843 -4.15953 10.3649 -11.2617 29.6788 19.8985 0.696298 28.4679 
19.9397 -15.9044 27.3101 14.6746 -18.5181 27.7748 40.3355 0.67211 -9.82319 
42.4569 3.59214 -1.82806 21.3754 19.3853 18.9963 23.8867 24.8794 16.2342 
18.8261 27.9266 15.702 15.9742 6.098 29.3981 22.2641 7.64388 26.9294 
19.6124 11.1422 25.1804 -24.1605 4.47136 22.1254 -28.5257 0.880496 21.6068 
-25.1345 8.83705 22.7594 -9.257 46.2787 -6.78448 -14.7679 43.5295 -3.64931 
-15.3235 43.21 -7.58613 24.6227 7.85439 24.3088 27.7491 6.6872 24.4411 
-27.1795 50.5082 -18.6675 -45.4625 35.8357 5.30738 -44.0955 37.2237 0.483264 
-23.8188 14.2071 21.0226 10.9078 17.6965 21.6995 27.9096 -25.4874 -9.96936 
33.7393 -26.6515 -7.0017 28.1666 -28.9923 -5.14205 -25.6854 -3.30125 20.5762 
-22.2679 10.8405 21.4393 8.34285 -18.7231 26.9235 12.307 12.4534 26.0594 
13.4672 13.7019 22.115 -22.5522 22.0758 16.1495 -27.8601 21.1021 17.4949 
8.66269 13.8724 21.711 7.64439 18.2154 21.7268 44.5059 -23.5749 0.39383 
2.06549 53.2604 -16.8583 7.38788 58.2834 -23.0725 6.48097 55.4673 -20.3033 
44.4941 -22.5265 -4.53727 39.5446 -25.8723 -3.89133 -29.6663 -29.5576 -11.3489 
-40.2519 22.2807 -7.5491 -33.0049 22.6707 -11.4416 -35.328 21.6167 -10.3628 
-21.7307 6.12035 22.4828 10.8879 -7.4611 29.9368 16.1644 13.18 23.5285 
-32.3346 47.3063 -37.7569 -12.6029 12.9718 -20.2674 -22.1801 1.04985 22.4343 
-20.3006 18.8851 18.1921 -44.1766 36.7203 10.3553 -12.8903 -29.1524 19.3799 
-12.4819 -28.202 21.1315 -17.8279 -29.117 21.397 13.8063 9.71995 28.6242 
12.044 -17.5882 28.8109 -5.68645 50.957 -15.0695 -2.07176 52.9358 -16.211 
-34.996 60.0812 -30.9911 -7.42319 24.2725 13.6881 -3.93353 24.4048 13.8951 
-32.04 -7.34606 -9.69364 -32.0266 -4.88436 -13.5024 -27.0085 -8.80716 -12.0645 
-19.2439 4.5411 23.0266 -19.86 15.2863 19.7192 -27.296 46.3199 -25.0682 
-26.8453 47.7657 -17.683 -27.9451 40.2184 -11.4156 -21.9573 -4.29823 19.9529 
-5.81977 57.3074 -17.7209 -0.614163 57.7491 -19.4481 43.1081 -4.09922 1.80109 
25.5189 18.0342 19.3168 20.6332 14.2354 24.0595 -17.3942 -25.1873 -14.0957 
-18.5519 -2.67773 21.5162 -19.3701 9.32511 22.2943 -29.5535 43.9662 -26.203 
-30.758 45.32 -33.2645 7.94997 6.89711 30.195 -17.4598 51.5914 -1.44848 
-24.2569 49.1395 -0.278248 -16.8108 -10.4591 -15.2752 -17.7295 22.5441 15.0157 
34.311 -20.1668 13.7286 39.4316 -19.8036 14.6073 37.2159 -15.2747 13.6418 
-18.3851 24.9295 13.3498 -16.117 27.6767 9.41674 -33.1496 -28.8265 -0.350322 
-33.7406 -26.7169 -1.68195 -16.9938 2.02496 21.9406 -15.5804 16.7082 19.999 
8.51979 -4.87964 31.0005 8.88647 -15.5638 28.0374 44.1793 -7.53772 10.4823 
42.0648 -6.77743 9.03369 38.9821 -12.1248 12.4686 42.8897 -13.1861 14.0931 
-19.167 44.8394 1.26819 -22.2494 -22.4184 22.2706 -17.3018 -23.6608 21.6722 
-16.38 -20.8775 19.286 -16.8141 -17.6532 17.9147 -19.9618 -16.9954 14.1542 
-20.6055 -19.4779 16.6193 -29.4635 55.4065 -22.4408 17.7817 17.2243 19.9912 
-32.7707 44.3804 -31.9101 -16.4168 10.7798 21.3089 -14.8657 5.9489 20.9724 
-13.0287 20.597 16.7204 37.8922 -23.1391 12.6766 15.5228 3.47805 30.4691 
-14.5029 2.23041 20.7297 -17.5715 -4.28337 20.4067 -13.7358 54.9866 -3.66933 
-15.6459 -5.43062 20.7637 -30.204 39.0857 -11.6061 -28.8892 41.915 -17.3327 
26.4517 2.65556 25.7535 -12.6737 -0.361411 21.3767 -13.1609 10.573 20.6143 
7.96333 24.1711 18.6429 -12.0939 -23.6215 20.1988 -12.7536 -18.8324 18.8299 
-13.6332 -9.28485 20.2958 -16.6769 -9.1706 18.7326 -11.8522 26.7108 12.0241 
-17.5979 31.47 -6.81605 -18.775 34.7182 -5.56552 -15.0175 31.782 0.40795 
-10.7194 -11.1023 20.0877 -10.2267 -1.95444 20.6613 -12.2395 14.4579 19.4087 
-11.2379 2.76332 21.9829 -10.1414 -20.5958 18.8308 -11.4781 6.74059 21.498 
-9.9302 8.12644 22.3108 -8.13141 11.1914 22.1565 24.0039 -28.7656 -16.0478 
27.3541 -23.2418 -15.433 24.8252 -28.745 -11.3876 19.9971 4.08875 28.8772 
-7.61548 -18.1943 17.5886 -6.74699 17.3593 18.997 5.3458 8.64161 29.5875 
-27.1855 57.0297 -38.5069 -5.69372 -16.1513 16.6689 -7.64356 2.53876 20.3706 
-7.5259 60.5005 -8.38164 -6.55197 -6.88088 18.762 -6.3355 5.14818 21.7521 
-11.6639 -12.9856 -13.8742 -8.50524 -11.9298 -15.0594 -8.26916 -18.3776 -12.8722 
-43.8029 10.687 -2.93153 -3.82403 9.10744 22.3484 -5.16776 -4.7745 19.8654 
-5.69807 13.349 21.3391 -11.5318 -4.15092 -17.7689 -9.60769 -8.67403 -16.2671 
-5.86928 64.4992 -11.3075 -36.8272 48.4177 9.56262 -43.8901 46.5696 6.13806 
-42.3938 45.608 12.2826 -4.19243 -10.0921 18.5958 -28.0866 -24.2515 10.9408 
-21.8901 -20.1731 11.5517 -25.5027 -26.1935 6.34315 6.23873 61.191 -25.4979 
-16.3666 44.7103 -9.39295 -9.78965 48.0369 -12.4114 -1.39975 -21.5369 27.3538 
-3.85041 -20.1247 25.2894 -8.502 -24.7925 25.8648 -1.38466 21.0712 18.3755 
-0.0711616 -18.9656 23.0943 -2.22261 -18.0733 20.8166 -5.05507 -19.065 21.8497 
20.8774 32.2084 6.33487 -45.9975 43.5993 8.59272 -45.6729 44.9903 2.797 
38.9326 12.4452 -9.10759 -1.60158 10.59 22.5813 -0.182707 16.0749 21.1421 
-27.1802 44.2772 -10.4094 -30.3956 48.1551 -5.8879 2.21473 18.5398 20.5298 
23.254 3.95725 26.3701 -25.7308 43.1365 -7.8006 -25.7677 40.4951 -8.78631 
3.06268 25.8949 16.333 26.3537 30.0489 0.818079 1.08853 12.0844 22.0433 
28.5289 -13.4682 -22.5352 32.8609 -11.8828 -18.5094 30.9835 -14.4236 -18.7648 
27.6485 21.8604 16.2919 -2.96375 65.1065 -12.3332 0.120299 68.0349 -16.1323 
-1.87292 67.523 -15.0551 -9.67493 -3.74621 -18.9875 -26.2456 48.7771 7.06021 
48.225 -4.39783 -0.373569 2.411 4.60058 30.0727 1.8867 9.53292 28.0272 
-2.22627 4.13638 28.8494 4.46887 -20.7728 24.4662 3.15112 -18.1838 25.6913 
1.42349 0.60975 30.5802 4.2112 13.1688 21.8659 3.04161 -10.7656 27.8974 
4.74682 -7.04831 28.5222 3.3546 -0.485871 30.0785 1.05829 -11.1082 26.4236 
4.42056 -14.9434 26.7941 6.01699 -2.67976 30.384 21.975 29.9209 12.2417 
[...]
POINT_DATA 1001
VECTORS u double
-6.17604 -8.5718 -0.70079 -6.18183 -8.7656 -3.03087 -10.5535 -11.4396 -4.09845 
19.3194 2.92052 1.51618 18.9699 3.11224 4.95704 21.3675 5.17144 4.09096 
13.5807 15.7069 12.0337 13.7447 16.589 12.9709 15.1711 16.8382 12.2753 
22.7045 9.05691 5.12728 22.6004 8.92633 2.56112 22.2468 8.02695 2.46094 
11.512 -5.33138 17.3913 8.66275 -5.97512 20.1173 8.89282 -5.77808 18.3733 
22.1262 18.3084 7.89499 22.297 17.6167 8.04475 21.6006 17.6864 10.0098 
7.32642 -13.8274 17.5085 8.71625 -13.8103 14.0164 5.96286 -11.2594 14.2797 
-8.0771 -19.997 0.0684742 -1.94287 -16.4975 -0.644439 -6.52444 -18.2927 -0.654834 
-9.06317 -10.3467 -7.94299 -4.61374 -7.83418 -4.8462 -10.5232 -11.491 -5.84797 
-13.2591 -13.125 -6.9222 22.9446 7.62968 3.87822 21.9638 5.97949 2.69818 
22.9801 8.12167 6.59517 -14.1221 -13.2184 -2.75123 6.92897 -15.706 20.2702 
5.10113 -14.0939 22.4226 8.97726 -11.4427 3.03674 10.5857 -10.9987 3.51653 
10.1662 -11.0511 1.37107 -16.5862 -14.9072 -6.5173 -13.9195 -13.2565 -8.62259 
-12.7147 -12.3733 -9.49202 2.42382 -13.8369 -8.17501 2.44284 -12.8832 -8.85206 
1.13304 -13.1786 -6.91302 -10.3993 -10.7402 -0.114093 0.763205 0.132617 14.5244 
-1.54649 -1.97683 13.505 -1.14953 -0.930559 14.4782 1.67891 -12.9733 -2.34575 
1.61253 -13.6256 -6.07425 0.659118 -11.9206 -2.94134 16.1293 -6.68224 1.87092 
15.2231 -5.96984 3.5582 16.8791 -4.60621 3.72743 8.0741 -12.3446 6.24735 
6.87626 -10.7248 5.07896 11.9779 -8.26049 -12.5535 14.9699 -5.02731 -12.4224 
11.2664 -6.46792 -13.9763 11.998 12.2418 0.65428 12.0291 11.2104 -1.96439 
11.4114 10.412 1.12247 10.5179 -14.9431 16.266 19.4382 15.0608 8.58348 
15.4763 12.8695 8.27085 19.9489 15.8479 10.2177 19.2146 2.31527 0.426303 
19.1746 2.91838 3.85661 18.088 -7.67117 -2.71164 17.7164 -7.58058 0.460264 
18.4676 -6.21488 -0.697212 8.48195 -12.6968 -3.12566 6.01255 -11.5085 0.679342 
10.081 -13.6266 9.55587 12.117 -12.7587 10.1413 11.7734 -11.6026 6.6702 
21.1843 4.85291 0.886573 -4.43247 -8.00562 -1.95922 -1.95076 -7.40121 -3.37607 
12.544 -3.85601 -13.2137 10.5405 -5.30286 -13.7759 13.5356 -4.20604 -13.3558 
-23.4626 -8.30565 4.64872 -23.7737 -12.353 3.34408 -24.2147 -10.0204 1.06605 
-4.50679 -7.02929 2.90195 15.2793 6.80492 14.2599 13.7782 4.41535 12.4704 
13.4764 4.92055 13.4617 21.1152 2.25656 2.16262 8.19686 -9.89505 -12.3368 
10.5122 -10.9379 -10.8627 -26.6474 5.70934 -1.10556 -28.3115 1.33001 -0.300493 
-27.7775 2.57538 -4.26765 9.68697 -4.19078 -14.0245 12.3935 -2.60309 -13.2274 
-15.8167 -13.5703 0.315863 -17.3974 -15.0218 -3.25106 -18.6314 -14.4867 2.2025 
5.83398 15.286 -2.94824 6.9886 15.8745 -7.19651 5.84758 15.5218 -0.338809 
10.1834 -2.81 -13.4813 14.4976 8.23885 13.0329 9.7516 5.59306 13.6673 
10.1131 6.23523 12.8352 -15.9902 -12.9843 3.08095 8.88606 -7.24302 21.8564 
7.39695 -9.43657 22.8108 5.27877 -10.2929 23.2977 13.5519 8.91456 10.151 
11.4815 7.45577 12.1444 1.65997 -8.16294 2.07288 0.559983 -9.30522 1.11379 
0.684535 -9.76885 -0.533643 -8.57402 12.1198 -8.19728 -6.36351 12.1604 -8.69328 
-8.18374 11.9842 -6.82017 -8.70761 -0.186423 -17.922 -9.11473 -2.14148 -17.2536 
-7.54705 -1.15785 -16.9883 -13.9018 -11.0412 -12.0175 -15.4214 -12.8743 -10.8188 
-13.4469 -11.8455 -11.345 -27.5496 1.4869 2.15788 -25.5524 1.72835 4.86808 
-27.0889 -1.31529 2.86432 9.69066 -0.800911 -7.55852 13.5188 1.18578 -6.85242 
14.8624 2.75256 -6.70242 8.07809 -6.90337 -12.7867 -9.57273 -5.2399 13.6041 
-11.9006 -6.3295 12.8917 -9.58456 -4.4372 16.8825 -11.4328 -10.549 3.18203 
-23.9582 5.38864 5.26911 -26.0112 5.77352 1.85186 -23.8601 -13.7829 -1.29379 
-24.1341 -11.7658 -1.47834 21.4157 0.58485 1.21011 21.1822 -0.487552 -1.37059 
20.1415 -2.05988 1.55335 -22.4878 -4.43941 4.83098 -23.0421 -4.55899 2.92561 
-19.9341 2.16938 5.92183 10.0855 0.80015 -8.91481 13.6916 3.2803 -8.52485 
-10.919 4.2472 -15.9872 -9.33202 3.84576 -17.327 -7.77692 5.47659 -16.2608 
-9.61826 10.2197 -13.0279 -9.2484 9.34399 -14.659 -5.17392 10.2717 -13.1561 
-6.47016 11.3456 -13.2641 -28.0573 -2.70317 -0.935208 -28.4991 -1.09357 -2.45278 
12.0969 2.85204 -8.83977 13.3933 4.78432 -9.09362 11.1478 3.39726 -10.0598 
-11.4264 -0.764163 -17.365 -10.6964 -1.87482 -16.9108 -9.39501 1.34342 -16.8046 
-11.6747 2.4324 -16.5577 4.38511 -6.68607 4.64378 2.14671 -8.72362 2.90891 
-23.5137 -13.5553 2.29174 -6.77076 4.27504 -16.7209 -13.0871 -3.24972 -16.553 
-11.1284 5.86968 -16.0076 -8.14764 7.87311 -15.9859 -22.0872 -5.54699 6.30954 
-23.7348 -7.43686 1.14738 -16.4805 -11.9015 -11.3534 -18.7123 -14.5399 -10.194 
-17.0428 -14.5258 -9.87437 -12.0849 -5.29945 -16.8909 -15.2149 -7.06141 -15.8395 
-14.4208 -8.20494 -14.6437 9.32947 3.26112 -9.8298 12.6265 5.46179 -9.23554 
8.9613 1.84618 -10.2664 -5.68388 -12.6497 1.67601 -2.06919 -11.0086 0.616755 
-1.48869 -10.2248 2.81144 -16.2099 -7.49974 -14.3774 -17.5815 -7.41814 -14.6643 
5.8874 -10.7278 8.30111 18.4867 -4.49288 -1.01667 17.7409 -4.78956 1.25281 
7.19148 -0.33576 -9.50018 -11.3946 -9.12317 -12.2234 -12.9018 10.7766 6.60293 
-16.3977 11.3868 4.56067 -13.0998 13.1179 3.54126 11.8396 6.44728 -8.7308 
6.97743 0.563022 -9.69423 -4.70893 8.54682 -15.0016 -11.2624 -7.42024 -14.7114 
-11.7912 -8.03058 -12.4432 5.15749 -3.22213 -7.23256 8.39831 -1.91338 -7.60539 
-9.52879 -7.10004 -11.8911 -9.97184 -8.62589 -12.06 -23.2024 9.13386 -0.396066 
-13.4255 -16.1651 6.19519 -17.6005 -18.4654 9.35775 -16.4957 -17.4311 8.00848 
-23.1192 8.36265 2.80332 -20.002 10.76 2.44838 20.5243 17.8118 10.9761 
17.6894 2.04779 6.91356 13.1485 1.13292 8.48794 14.7553 1.76957 8.17117 
7.5903 2.1513 -10.2133 -7.53734 2.20513 -16.8572 -13.0555 -8.40194 -13.4602 
10.4358 -5.79285 19.6606 3.5684 0.608896 13.3815 8.87364 4.12333 -10.0804 
4.39112 -2.6296 -8.31316 17.0905 -5.6276 -3.91442 8.48039 16.2713 -9.25935 
8.05117 15.7654 -10.3641 11.2543 16.8579 -10.2919 -11.6329 -6.57694 -16.3195 
-6.91068 7.59678 -16.4388 -8.35655 -14.1069 5.54828 -10.8696 -15.4191 5.87643 
11.4081 -14.1524 14.0525 -3.42203 -6.96971 -6.95156 -5.24641 -7.80063 -7.28591 
18.2701 9.55938 9.75221 18.0626 8.9942 11.8823 15.7286 9.16028 10.8421 
6.49197 2.21827 -10.6505 4.79742 -1.48648 -9.01463 6.63579 -7.61367 12.4278 
5.88063 -9.45966 8.14859 7.17606 -6.5638 5.93028 9.92185 6.11065 -8.54742 
-9.13967 -16.771 6.16449 -12.4984 -17.4554 7.09916 -23.3839 -3.2209 -1.13483 
-18.1754 -12.1976 -11.7204 -15.4119 -9.76087 -14.1335 12.8661 14.1986 11.6946 
7.61639 4.83974 -9.69626 5.61839 0.48781 -10.3192 8.50313 -6.03359 13.4755 
9.40797 -5.55775 17.3082 -8.39603 -4.24404 -16.8176 -1.62018 -14.8279 -1.57737 
2.98566 -12.947 -1.39649 10.4372 7.98607 12.0797 2.39394 -4.27818 -6.92491 
-17.7985 7.34695 -8.43748 -20.8191 6.91812 -9.27896 -19.6894 4.06737 -8.47564 
2.38288 -4.89309 -6.15247 0.804395 -5.99696 -4.38048 21.7938 17.9701 4.36051 
21.9666 17.0503 5.25783 5.81998 2.7297 -10.0756 2.1269 -2.92243 -9.51247 
-6.77064 1.23168 -17.3353 -5.39576 6.75008 -15.6648 -24.0444 -1.22351 -6.73654 
-22.8046 -1.53767 -5.71467 -20.8207 1.97379 -7.79015 -23.1144 2.43815 -9.04526 
0.161752 -11.6546 -1.93434 12.9833 13.999 -10.375 10.2785 13.9302 -10.2845 
9.50976 12.3399 -8.7267 9.38131 10.8246 -7.7565 11.2926 10.9133 -5.23346 
11.8929 12.1913 -6.78135 7.2708 -12.7613 9.75354 -14.4033 -10.2942 -11.6132 
10.9147 -5.06751 16.7218 3.75114 -0.628944 -9.95051 3.93351 0.845558 -9.68683 
0.129299 -4.67475 -8.03021 -19.704 9.16671 -8.01242 -11.5081 -3.97516 -17.5037 
4.4995 2.17556 -9.48754 7.43738 5.28388 -9.07025 -4.26844 -16.7025 -1.10978 
6.56789 5.39063 -9.40247 8.83283 -5.73102 6.31819 7.91059 -6.4003 8.89594 
-16.4376 -5.17635 -15.3458 3.98513 2.81577 -9.95855 2.08918 -1.2076 -9.7222 
-11.263 -10.7997 -10.682 7.37028 13.2166 -9.62813 7.21192 10.8386 -8.58895 
6.16577 6.64066 -9.2618 7.91105 7.09089 -8.12253 -1.50271 -6.76437 -5.98267 
1.85056 -5.25808 4.0708 1.90112 -6.42217 3.04649 -0.0876904 -6.73758 -0.00791375 
4.89013 6.96032 -9.32924 3.02861 2.99728 -9.66029 0.854541 -2.77283 -9.2446 
2.58364 1.30896 -10.4478 5.98762 11.3767 -8.78969 1.94214 -0.156138 -10.2244 
0.800398 -1.02206 -10.8454 -0.756332 -2.55441 -10.969 -10.3087 13.0235 10.5432 
-12.5253 9.33954 10.081 -10.9383 13.0032 7.57173 -13.679 -4.97641 -16.8423 
4.37122 9.81805 -8.1107 -2.58611 -4.99417 -9.50579 -7.41986 -4.50446 -16.291 
5.84458 -11.6703 18.7186 3.12522 8.54015 -7.62311 0.853186 0.722768 -9.69033 
-8.65462 -19.6381 0.364968 2.07587 4.41768 -8.73371 -0.413524 -0.584656 -10.6528 
7.91703 8.04027 10.957 6.10671 7.14924 11.4335 6.76515 9.83323 10.2166 
21.7195 6.13784 5.68167 -2.51838 -2.65539 -11.2769 0.934586 3.27956 -9.48489 
-2.4 -3.85019 -10.7267 6.54626 4.97779 12.9826 6.24116 6.12307 12.1374 
-10.0591 -21.5853 1.37156 10.7936 -12.6321 -5.43629 16.2495 -10.5346 -2.82738 
14.7468 -10.8448 -6.07034 1.35598 5.48102 -8.80547 17.3395 15.3385 -2.93195 
13.0309 12.5815 -3.57851 16.3137 15.8083 -0.261277 -17.4211 -19.3167 10.4648 
-0.985743 -10.4792 3.62438 -5.44553 -12.5313 4.56078 0.786585 11.1338 -14.74 
2.09006 10.5695 -13.2206 5.16208 13.6413 -13.4918 -6.04562 -7.50413 -9.72556 
0.0504727 9.45203 -12.0279 1.2442 9.16824 -10.4428 2.82749 10.0505 -10.9397 
-18.6827 -15.7288 -4.86138 17.8205 -8.94994 -3.58279 17.9513 -9.07535 -0.75722 
-23.0387 -11.1258 5.63837 -3.9447 -3.70075 -11.6091 -5.7111 -6.05996 -11.0947 
6.11154 -8.71707 4.78599 7.58762 -10.9998 2.07897 -7.37451 -7.4907 -11.0299 
-15.0748 -5.38498 -15.5062 5.13785 -8.7094 3.48638 5.56217 -7.34037 4.37604 
-9.1803 -10.1353 -9.20907 -20.6253 -15.8098 -1.48002 -5.5412 -4.82511 -11.5188 
-13.7378 3.41927 14.6279 -16.442 2.14804 11.982 -15.1368 3.76399 12.1644 
-19.8194 -14.1242 -10.2125 -11.991 -22.0742 1.80577 -14.2634 -23.4889 3.59535 
-12.9093 -23.1504 3.0412 5.53893 4.54323 13.5844 3.7957 -13.5658 -5.02748 
-26.3701 -3.46337 0.158516 -5.23803 -2.18695 -16.3231 -5.80133 -4.15899 -15.1115 
-2.74844 -1.09267 -15.2465 -2.28023 10.0121 -13.2391 -1.92357 8.74626 -13.8546 
-4.05125 -0.23212 -16.551 -7.26765 -5.89782 -11.6615 -2.91819 4.91577 -15.0675 
-4.36158 2.83007 -15.5174 -4.7993 -0.0668414 -16.3621 -1.74202 5.33013 -14.0101 
-3.0356 6.88462 -14.5519 -5.79866 0.529116 -16.7464 -18.831 -15.7343 -8.15473 
-6.68334 -1.3719 -17.0631 -22.0582 6.55926 -9.07336 -20.36 -13.1285 -11.0901 
-8.50895 -6.17652 -14.2009 -7.25502 -13.113 3.49227 -4.40232 5.21873 -16.1896 
6.42923 -9.05257 18.1942 22.5269 7.47295 1.22459 21.5976 5.91315 -0.249575 
-26.2005 -1.34426 -6.6662 -12.7497 8.24365 -12.4104 -12.5304 10.342 -13.0807 
-5.06248 -13.9145 5.44891 -2.19061 -14.7248 3.71294 -7.01973 -17.1118 5.07723 
-22.5313 -8.52946 7.63865 6.34355 3.41819 14.1122 5.01798 3.46846 14.3845 
5.19383 3.86047 13.5117 -14.1771 -8.2245 11.8164 -15.6134 -8.33684 12.9031 
-18.1578 -1.23988 -12.1648 -16.5002 -0.43271 -13.1135 -16.0621 2.72195 -13.458 
-15.9098 -17.5821 5.54323 -15.3363 -18.6522 5.99634 -14.5424 -17.0788 4.07158 
7.44701 -5.43224 -12.8798 7.01085 -9.25744 -11.8455 -15.3871 9.1815 -10.8202 
-16.9918 6.51396 -10.4153 -15.436 6.68449 -11.2515 10.4469 -1.57704 -11.6991 
7.89448 -3.97424 -12.9357 -14.0386 5.83337 -14.2197 -14.3621 3.96071 -14.789 
-12.3447 5.99429 -14.6578 -27.2573 0.192736 -6.38206 -25.0724 1.54629 -8.27482 
8.29288 -3.02312 -11.6687 -15.473 -0.421958 -14.945 -14.5836 -2.86563 -16.6329 
-12.9886 0.451959 -16.3543 -23.1501 -6.9668 -6.74315 -22.244 -7.99616 -9.39072 
-21.8442 -5.74133 -9.47569 -25.5209 3.98294 -7.6307 -26.9591 4.764 -4.85934 
5.31079 -11.6795 -10.3031 5.58844 -8.38795 -8.88009 -16.8919 -18.2568 6.99646 
-15.2328 -20.3567 6.02887 5.87811 -5.6166 -10.3023 4.69625 -9.40655 -8.55304 
-3.387 -3.30231 12.5451 -5.42605 -3.7742 13.2649 6.65771 -3.94847 -9.5021 
-3.82731 12.0278 10.4544 -6.44824 13.6817 10.9782 -6.53545 12.2726 9.59477 
10.6403 -0.675508 -7.70304 -12.6234 -5.66015 15.3894 -12.4446 -4.68462 16.5145 
-10.3375 -4.12175 17.5526 -21.9809 -1.42226 -6.621 -22.1157 -3.27384 -7.59979 
-20.6754 0.246909 -9.5463 -14.6142 6.40011 12.4197 -14.4285 7.68499 10.7287 
-12.0835 8.19722 12.6286 3.61107 -7.84536 -8.69907 -17.4748 -4.03327 -14.7108 
6.94955 -7.68017 22.1322 3.76293 -10.8043 -9.28091 -18.8013 -3.16291 -12.9768 
-19.8529 -5.81414 -12.5435 -18.7854 -5.62157 -13.0989 -20.2605 -15.6887 -8.94255 
4.2452 -5.50523 -9.35588 2.94882 -9.14918 -7.47305 3.34236 -13.6227 -9.23991 
12.6323 16.6956 -11.6404 14.5742 16.2983 -11.6109 -8.88921 -15.9624 1.82254 
-12.7021 -16.3983 2.44135 -19.4292 -11.8575 -11.8113 -18.2173 -9.82844 -13.883 
-9.91397 -15.8026 0.730378 -6.06598 -14.8351 -0.517651 -9.53979 -17.2771 3.03729 
2.02207 -6.63849 -7.32885 1.93745 -10.6134 -7.09311 -15.621 5.0112 -12.6305 
20.0361 -2.68979 -1.6138 1.26238 -7.66657 -6.7146 1.27382 -12.0868 -6.2051 
-13.6414 -21.3078 4.34139 -6.64545 -16.5508 1.30669 -19.0862 2.15251 -11.4196 
-12.5768 12.7152 -12.5419 -13.9475 2.62242 -14.7839 -15.0745 11.2521 -8.18555 
-6.45692 13.7933 -13.4636 15.3676 14.5727 -9.28992 1.82517 -9.11932 -5.96379 
-20.6651 -8.06025 -12.5841 -20.2852 -11.1187 -11.9942 -19.0693 -8.82704 -13.532 
-18.0532 -5.56001 -14.2233 -21.7936 -11.8462 -9.95537 -23.4427 -13.6641 -6.61904 
-21.5964 -14.692 -9.24645 0.682554 12.5212 -15.3551 -19.298 -0.832827 -11.4422 
-23.2593 8.12944 -6.28903 -5.52653 -15.1607 0.624778 -20.3536 -3.93254 -11.3407 
15.5037 -8.92711 1.62623 15.106 -10.1735 -0.0647367 13.8271 -9.11317 2.62676 
13.561 13.5394 11.1463 -20.5032 8.03099 5.64423 -23.5868 -6.63964 -4.77814 
1.02509 14.8016 -15.5171 3.34383 15.0719 -15.4164 -23.2826 -3.32153 -3.31044 
-12.6214 -15.6573 3.77694 -8.7566 -14.0644 2.34266 -16.6928 -21.939 9.02512 
-16.5326 -22.9912 7.40189 -17.9864 -21.1355 9.77814 13.5593 -13.3423 15.1861 
6.28857 -12.5565 -10.1699 -3.2274 -13.5044 -0.9282 -22.6686 -10.2447 -8.88598 
15.602 12.7789 5.56014 13.3991 10.4406 3.63633 14.3419 10.6898 5.97157 
-3.10189 -14.159 -0.439492 -1.82723 14.4306 -14.514 0.758804 -7.94538 -0.923236 
18.5439 7.3486 12.8837 18.2904 6.24066 11.8163 16.7229 5.01895 11.4306 
-20.0862 -0.892003 8.66408 10.9515 -5.72414 8.50836 11.3457 -5.78124 6.17043 
3.41013 13.7606 -15.1446 -15.4711 -23.8522 5.35889 -21.7743 -6.7453 8.47553 
-16.8913 11.1984 -6.42588 -11.5263 -22.3633 1.72409 11.0401 -5.77565 10.6886 
9.50732 -5.70434 11.7348 5.69568 -9.67834 10.5842 5.81145 -9.88679 13.7117 
18.9589 -2.73033 -5.27238 19.9142 -0.854021 -4.02366 19.963 -0.824181 -8.09581 
21.0708 1.69719 0.0377707 -18.5861 9.95486 5.22124 18.7384 -3.0184 3.53187 
10.1186 11.3839 11.1887 8.71832 11.0816 11.9388 9.76592 11.9812 15.5561 
-11.5384 9.68169 13.0141 -14.2121 1.24081 14.0432 -16.044 -1.483 13.827 
-17.3976 -1.18793 11.7291 20.9308 2.00541 4.03721 -13.898 -19.0058 7.91281 
5.47629 5.61326 13.84 8.60943 16.1048 -4.44698 17.7478 -4.18941 -8.4632 
17.4805 -4.84604 -5.5661 -18.7054 2.49626 8.47574 -16.4078 4.52988 9.93899 
-19.993 -5.51083 11.0057 -19.9921 -3.7248 8.83687 20.5215 7.01021 -2.55573 
21.6968 7.00798 -0.947423 21.3145 8.61269 -0.172119 4.25415 13.8119 0.226879 
4.82374 14.1313 -2.24336 -15.7999 7.15916 7.43768 5.18963 13.569 8.46477 
1.74012 13.0161 6.52214 -20.5973 -7.38881 10.6403 -18.0464 -0.131793 10.8542 
22.2004 9.6231 7.00274 22.3353 8.52482 6.038 -20.4865 -9.1012 9.47048 
-21.6418 -11.1941 8.50485 20.5962 -0.0859388 3.3739 -8.25606 -20.055 3.08353 
19.6672 0.740522 -3.16468 16.2934 17.8939 -10.1494 -15.1933 -22.7405 7.0756 
-12.9164 6.37673 13.8234 -18.1555 -4.07621 12.0076 -17.5781 5.41084 7.04152 
-14.9046 -16.6454 5.9771 18.4449 17.2898 -1.91221 18.7977 17.0224 -3.94409 
17.2735 16.3011 -1.94845 18.7865 -1.31488 4.68716 14.4735 -1.29351 -11.3608 
12.3341 -1.27305 -12.291 -4.83159 13.8962 13.4608 -0.41161 14.3424 14.8351 
-3.75554 13.5324 14.6417 -15.5663 -6.51132 13.6921 -15.2736 -4.49034 14.6629 
-13.8121 12.0834 -10.7016 -8.24847 13.8684 -9.8868 -6.44126 14.2913 -12.6806 
-5.30679 14.2209 -10.6867 -22.1177 -13.2254 6.17511 5.71674 13.8212 4.2538 
-11.8296 12.9924 5.16522 18.532 14.8233 3.78165 19.4421 14.729 5.46296 
16.5041 -8.08818 -6.65584 17.102 -6.82883 -5.40361 -7.38328 12.6541 14.0412 
-8.96414 13.2799 12.4133 20.171 0.80021 -5.21941 -23.8895 -10.5783 -5.53432 
2.95369 10.8631 16.7823 8.86249 12.5411 17.9008 5.35315 10.4248 16.1865 
1.48452 -10.3139 -4.06718 14.5824 12.7443 3.50677 13.5043 13.8113 -0.0506371 
1.00496 -8.82484 -3.50784 -23.3862 9.07152 -3.25912 -4.45689 -0.562098 19.9541 
-2.55591 -0.129925 20.2407 -4.4861 -1.5226 19.0906 -11.9862 -20.4392 5.88925 
20.6936 8.23377 -2.6097 -27.5456 -2.27406 -4.50516 6.07428 10.1556 14.8681 
5.33567 2.78305 14.0603 4.27879 2.02225 14.7737 3.74429 2.45817 15.4932 
6.49052 -13.541 -6.02631 12.3908 -11.8044 -2.43891 10.1913 -16.2389 18.5144 
13.1237 -15.0952 17.7297 21.3244 9.25316 1.92721 -22.5508 -15.8056 -6.56451 
-26.1136 -3.43412 -3.93882 -25.5598 -2.02584 3.0717 10.7353 -12.2417 -8.1653 
7.71681 -13.1051 -8.17222 12.4995 -9.31881 3.62707 -22.9742 -2.30001 2.25099 
0.709734 -1.31602 12.3184 0.320105 -7.80623 -4.01146 1.28428 -4.47206 6.59244 
-1.3142 -5.42466 5.80105 -2.36199 -6.92729 1.54561 -6.0881 -19.3445 1.06433 
21.147 9.9862 2.21248 -9.20932 -5.6636 13.04 -6.68847 -3.90104 13.9271 
-3.06221 -5.79734 5.54545 0.0224864 -6.66875 -2.51061 6.64882 -15.5132 21.6496 
10.6256 -15.9703 19.6885 14.0472 -5.37847 5.43939 4.49601 -12.0648 0.319301 
10.4689 3.80488 14.1532 10.506 4.48658 14.756 11.7672 5.29708 14.6296 
-22.8727 -15.4509 -2.26428 -22.6982 -14.8238 2.54136 19.2423 0.719501 -8.15273 
-22.0056 -15.7084 -0.519648 -21.0509 -16.3252 -5.57317 14.9835 10.3117 5.38848 
18.8784 0.805883 6.69692 2.54632 -13.6471 0.336665 -7.67122 13.7426 3.64505 
-7.45383 13.1359 2.54038 -6.25648 14.0392 0.816897 -19.8144 -15.8842 -7.15233 
-21.2057 -14.2307 4.76793 21.5883 6.78194 6.53974 -20.2894 -15.0034 2.1393 
15.3964 13.9891 -7.92598 2.33904 8.3914 -8.35874 -0.527017 0.813829 -12.5386 
11.9858 11.7315 -4.76234 9.74157 7.25266 -7.04253 10.3863 8.40344 -5.31374 
17.2429 10.2114 8.90825 -1.74304 2.98259 -14.3663 -1.68046 0.576053 -15.0136 
13.5295 -10.4763 11.1455 5.55115 12.0634 -11.0127 5.753 13.0404 -11.9141 
11.7284 3.25545 12.7311 12.8446 3.40854 11.8767 9.93075 0.945598 10.4963 
-3.59566 -2.99734 -13.2267 18.7192 17.7484 -7.41024 11.881 10.0528 -0.665277 
11.5278 9.22945 -3.14309 13.4198 9.82695 -1.19295 19.1668 17.8944 -4.81852 
16.6649 14.4303 -5.70527 17.7528 17.71 -9.08862 15.6657 -3.08804 -11.7796 
12.0142 -10.1798 5.18031 17.5484 6.01746 -6.33402 16.7574 7.18216 -6.60182 
-8.84954 13.5896 -3.24661 -7.31872 13.7785 -4.40854 -7.19828 13.944 -2.62659 
17.2489 17.2467 11.9441 8.84542 6.31843 13.202 2.57649 14.6569 13.4296 
1.81105 12.8759 12.0368 4.51233 13.2802 12.7137 16.2287 -1.53561 -11.5502 
15.1688 -6.59311 -10.957 20.037 15.0683 7.06714 22.1603 17.3974 6.54532 
6.02606 15.8551 -12.6529 10.0502 9.66063 11.1617 17.7261 -2.41911 -10.3994 
3.83956 5.68768 18.7118 4.31368 3.95945 18.6713 1.94758 3.79197 20.8644 
11.5092 3.82837 13.1566 13.9662 6.43542 14.2394 19.0249 3.77502 -2.39651 
18.209 5.39145 -4.82205 18.8625 4.73228 -3.82446 15.064 -8.49249 -9.13504 
19.2361 17.1162 1.62415 17.3168 -0.301076 -10.6069 15.6352 1.52505 -4.60147 
17.7012 2.18309 -2.00895 -1.24171 -16.3179 0.772546 17.2404 17.5445 -0.030838 
18.1822 -0.472227 6.61474 14.2757 -1.24774 7.63553 9.58768 15.3002 18.8815 
10.989 16.0236 18.6612 12.7939 -3.52086 6.72634 13.9402 -11.501 13.9835 
6.23424 14.7901 17.6792 7.51572 15.5455 17.5375 17.6885 17.2626 -0.352309 
1.9623 2.08399 19.8166 14.9845 13.0892 9.70946 12.7259 11.2647 10.3813 
7.57306 -14.7641 21.9432 -9.12966 -6.23372 12.5547 -10.701 -7.80784 10.0736 
-11.1614 -7.42932 11.6124 15.2847 -2.98457 5.99737 9.19257 -9.60034 20.0763 
9.0906 -14.5745 20.8972 10.1636 -10.9896 18.1546 12.8675 -14.3589 18.5584 
11.4423 -12.1098 17.0675 10.4293 -7.83854 17.332 13.7383 -12.7864 16.4464 
11.2845 -7.78745 13.2428 11.5764 -9.88563 13.5372 -4.51501 -18.1109 2.43841 
-15.4318 -11.8536 5.88935 -13.6303 -10.8121 6.03866 12.3613 -6.09452 13.2558 
-2.60875 -3.4291 10.9814 -0.935483 -2.9782 10.648 -0.727299 -3.52855 9.1304 
3.87558 2.93499 17.1871 -8.71915 -8.60594 4.76669 -11.5922 -9.76633 6.37299 