# vtk DataFile Version 3.0
vtk output
ASCII
DATASET POLYDATA
POINTS 1001 float
-3.13182 29.8049 1.00549 -3.18051 29.0042 5.38092 4.27122 31.5611 6.16429 
-42.83 18.2186 3.39679 -41.7677 18.7367 -3.07911 -44.2486 13.3258 -0.381315 
-17.9792 -28.09 -14.5362 -17.7315 -29.8367 -16.0569 -20.345 -29.788 -14.611 
-42.3592 -0.157633 -1.05405 -42.6703 -0.0653603 3.35274 -43.0567 3.05531 3.37037 
-33.695 45.4712 -33.3232 -29.9093 47.4341 -38.6106 -30.1123 46.2034 -35.3451 
-32.8547 -29.7277 -6.03788 -33.4532 -28.0975 -6.19504 -31.8019 -28.727 -9.5404 
-29.4571 60.4512 -37.2207 -31.3679 59.2575 -30.9108 -27.2153 54.4635 -30.3858 
-8.57358 61.2557 -7.98873 -17.3751 55.5294 -4.31409 -10.5657 57.8486 -5.59353 
2.34536 27.5125 13.9168 -5.67535 26.7618 9.31716 4.32731 30.6579 9.451 
9.46694 31.4462 10.7721 -44.6378 5.6614 0.893694 -44.6846 10.5508 2.47609 
-43.8472 4.40637 -3.81149 11.105 32.9987 3.04345 -29.1646 64.3265 -42.5707 
-26.6852 62.2643 -45.5729 -32.4239 49.8388 -7.93287 -34.6249 49.5054 -8.47479 
-34.3599 48.4393 -4.03752 16.1774 32.2758 9.42408 11.4402 29.656 13.9003 
9.4845 28.0263 15.8594 -24.6009 47.3739 13.1444 -24.3714 45.03 14.9441 
-22.0261 46.0814 10.7336 4.41181 31.7803 -0.97505 -5.53415 9.03791 -22.127 
-4.21072 15.7482 -21.388 -2.49573 10.4497 -22.39 -22.2832 48.2589 1.5192 
-22.8857 47.6698 8.86074 -20.2298 45.1294 3.22885 -42.1145 41.1079 -1.93806 
-40.3426 40.2135 -5.26424 -42.3937 37.7628 -4.67912 -30.8528 53.0629 -15.1683 
-28.905 49.0251 -12.062 -38.4658 37.6878 24.8426 -41.7808 32.1648 25.7541 
-36.7078 33.2089 27.697 -19.2425 -20.4885 4.33567 -20.5109 -17.6678 8.84411 
-19.1743 -16.3852 3.59649 -33.7931 62.1055 -35.3788 -29.6903 -23.5825 -7.51451 
-23.7838 -20.4865 -7.75141 -29.8001 -25.3063 -10.1402 -43.2075 19.6239 5.20425 
-42.3634 19.0393 -1.03803 -45.9669 41.5452 7.38193 -44.8457 42.6064 0.868414 
-45.8402 39.5478 3.96413 -32.9533 49.1163 4.3242 -28.3107 48.0739 -3.44126 
-33.4926 57.2059 -22.2184 -36.1366 56.1576 -22.792 -35.9531 52.4122 -15.2129 
-44.5273 13.2531 5.34875 -6.57129 29.4859 3.65329 -11.6206 29.8115 6.67786 
-37.3397 28.0994 27.1205 -34.863 30.2242 27.5626 -39.1851 29.4388 27.3762 
41.6164 5.60764 -7.33283 39.5336 14.688 -5.62079 42.0928 8.67216 -1.818 
-5.35336 28.7089 -5.1 -29.208 2.31958 -18.6871 -30.1462 11.746 -16.8795 
-28.6045 9.12223 -18.356 -46.1766 21.6705 2.11737 -33.0963 39.6414 23.5088 
-36.8989 43.0486 20.7704 49.7888 -18.7374 1.38579 52.091 -12.3396 0.184701 
51.1515 -14.0851 6.22541 -32.7044 26.9284 28.1546 -36.2974 24.9323 27.3845 
14.7997 33.1389 -2.44759 17.753 33.2758 3.53291 21.4664 31.6526 -5.48588 
-7.14548 -28.949 8.72161 -9.92937 -29.1847 15.846 -6.56264 -29.61 4.3661 
-32.546 23.8327 27.5741 -25.1678 -6.4124 -16.1591 -18.1775 -1.72968 -18.4362 
-18.1199 -4.22052 -16.817 15.8794 31.9829 -6.95546 -30.6134 50.8085 -42.2891 
-29.0755 54.9204 -44.7454 -26.4016 56.2242 -45.7539 -22.8314 -10.4327 -11.3159 
-19.6767 -7.37506 -15.2382 -19.636 39.0751 -4.73553 -18.4185 40.9054 -3.53075 
-18.9829 41.1962 -0.446711 18.124 -26.398 14.73 13.8764 -26.0386 15.9846 
17.6438 -26.2206 12.5621 11.726 -2.98275 31.5766 11.4378 1.06351 30.5782 
8.65043 -0.0416398 30.4826 15.2202 20.2771 20.6387 16.8359 24.4151 17.9714 
12.6309 23.9784 19.3308 50.975 -12.5436 -3.53428 47.8698 -12.7317 -7.64058 
49.8815 -8.08803 -4.56132 -29.322 18.8783 17.8227 -34.7318 16.4425 17.4042 
-35.7493 12.7325 17.5593 -31.491 32.8164 25.2048 12.9369 12.651 -21.7022 
17.584 12.5009 -20.5979 14.2616 9.91534 -26.6731 7.02107 31.2827 -6.77844 
45.7026 -18.2072 -8.29594 48.9067 -18.862 -3.11405 38.488 17.7216 1.55384 
40.7616 12.4442 2.08021 -47.6443 25.9733 3.33566 -48.0917 27.6027 7.84101 
-46.7483 32.0095 1.42957 41.4408 -1.62746 -7.50361 42.3324 -1.60387 -4.54327 
38.7041 -12.6197 -9.15379 -28.5694 13.815 20.5208 -33.1095 9.5401 20.5577 
19.016 -12.973 27.4851 15.31 -11.4982 30.0494 13.0561 -14.0461 28.5637 
18.7518 -23.1231 22.4918 17.4991 -21.4488 25.2624 10.2043 -22.1488 23.6673 
12.9427 -24.286 23.4436 51.1056 -5.96655 1.22502 51.9976 -8.57618 3.49368 
-30.3938 9.18491 20.8569 -30.8788 4.0647 21.5111 -27.9413 6.17556 22.7734 
17.4988 -3.45642 30.0207 15.3316 -0.700509 29.5836 14.4113 -6.70432 29.4639 
19.736 -9.87583 28.3772 -23.4394 38.3195 -8.97455 -20.805 41.4153 -6.78549 
37.8031 18.0843 -4.15953 10.3649 -11.2617 29.6788 19.8985 0.696298 28.4679 
19.9397 -15.9044 27.3101 14.6746 -18.5181 27.7748 40.3355 0.67211 -9.82319 
42.4569 3.59214 -1.82806 21.3754 19.3853 18.9963 23.8867 24.8794 16.2342 
18.8261 27.9266 15.702 15.9742 6.098 29.3981 22.2641 7.64388 26.9294 
19.6124 11.1422 25.1804 -24.1605 4.47136 22.1254 -28.5257 0.880496 21.6068 
-25.1345 8.83705 22.7594 -9.257 46.2787 -6.78448 -14.7679 43.5295 -3.64931 
-15.3235 43.21 -7.58613 24.6227 7.85439 24.3088 27.7491 6.6872 24.4411 
-27.1795 50.5082 -18.6675 -45.4625 35.8357 5.30738 -44.0955 37.2237 0.483264 
-23.8188 14.2071 21.0226 10.9078 17.6965 21.6995 27.9096 -25.4874 -9.96936 
33.7393 -26.6515 -7.0017 28.1666 -28.9923 -5.14205 -25.6854 -3.30125 20.5762 
-22.2679 10.8405 21.4393 8.34285 -18.7231 26.9235 12.307 12.4534 26.0594 
13.4672 13.7019 22.115 -22.5522 22.0758 16.1495 -27.8601 21.1021 17.4949 
8.66269 13.8724 21.711 7.64439 18.2154 21.7268 44.5059 -23.5749 0.39383 
2.06549 53.2604 -16.8583 7.38788 58.2834 -23.0725 6.48097 55.4673 -20.3033 
44.4941 -22.5265 -4.53727 39.5446 -25.8723 -3.89133 -29.6663 -29.5576 -11.3489 
-40.2519 22.2807 -7.5491 -33.0049 22.6707 -11.4416 -35.328 21.6167 -10.3628 
-21.7307 6.12035 22.4828 10.8879 -7.4611 29.9368 16.1644 13.18 23.5285 
-32.3346 47.3063 -37.7569 -12.6029 12.9718 -20.2674 -22.1801 1.04985 22.4343 
-20.3006 18.8851 18.1921 -44.1766 36.7203 10.3553 -12.8903 -29.1524 19.3799 
-12.4819 -28.202 21.1315 -17.8279 -29.117 21.397 13.8063 9.71995 28.6242 
12.044 -17.5882 28.8109 -5.68645 50.957 -15.0695 -2.07176 52.9358 -16.211 
-34.996 60.0812 -30.9911 -7.42319 24.2725 13.6881 -3.93353 24.4048 13.8951 
-32.04 -7.34606 -9.69364 -32.0266 -4.88436 -13.5024 -27.0085 -8.80716 -12.0645 
-19.2439 4.5411 23.0266 -19.86 15.2863 19.7192 -27.296 46.3199 -25.0682 
-26.8453 47.7657 -17.683 -27.9451 40.2184 -11.4156 -21.9573 -4.29823 19.9529 
-5.81977 57.3074 -17.7209 -0.614163 57.7491 -19.4481 43.1081 -4.09922 1.80109 
25.5189 18.0342 19.3168 20.6332 14.2354 24.0595 -17.3942 -25.1873 -14.0957 
-18.5519 -2.67773 21.5162 -19.3701 9.32511 22.2943 -29.5535 43.9662 -26.203 
-30.758 45.32 -33.2645 7.94997 6.89711 30.195 -17.4598 51.5914 -1.44848 
-24.2569 49.1395 -0.278248 -16.8108 -10.4591 -15.2752 -17.7295 22.5441 15.0157 
34.311 -20.1668 13.7286 39.4316 -19.8036 14.6073 37.2159 -15.2747 13.6418 
-18.3851 24.9295 13.3498 -16.117 27.6767 9.41674 -33.1496 -28.8265 -0.350322 
-33.7406 -26.7169 -1.68195 -16.9938 2.02496 21.9406 -15.5804 16.7082 19.999 
8.51979 -4.87964 31.0005 8.88647 -15.5638 28.0374 44.1793 -7.53772 10.4823 
42.0648 -6.77743 9.03369 38.9821 -12.1248 12.4686 42.8897 -13.1861 14.0931 
-19.167 44.8394 1.26819 -22.2494 -22.4184 22.2706 -17.3018 -23.6608 21.6722 
-16.38 -20.8775 19.286 -16.8141 -17.6532 17.9147 -19.9618 -16.9954 14.1542 
-20.6055 -19.4779 16.6193 -29.4635 55.4065 -22.4408 17.7817 17.2243 19.9912 
-32.7707 44.3804 -31.9101 -16.4168 10.7798 21.3089 -14.8657 5.9489 20.9724 
-13.0287 20.597 16.7204 37.8922 -23.1391 12.6766 15.5228 3.47805 30.4691 
-14.5029 2.23041 20.7297 -17.5715 -4.28337 20.4067 -13.7358 54.9866 -3.66933 
-15.6459 -5.43062 20.7637 -30.204 39.0857 -11.6061 -28.8892 41.915 -17.3327 
26.4517 2.65556 25.7535 -12.6737 -0.361411 21.3767 -13.1609 10.573 20.6143 
7.96333 24.1711 18.6429 -12.0939 -23.6215 20.1988 -12.7536 -18.8324 18.8299 
-13.6332 -9.28485 20.2958 -16.6769 -9.1706 18.7326 -11.8522 26.7108 12.0241 
-17.5979 31.47 -6.81605 -18.775 34.7182 -5.56552 -15.0175 31.782 0.40795 
-10.7194 -11.1023 20.0877 -10.2267 -1.95444 20.6613 -12.2395 14.4579 19.4087 
-11.2379 2.76332 21.9829 -10.1414 -20.5958 18.8308 -11.4781 6.74059 21.498 
-9.9302 8.12644 22.3108 -8.13141 11.1914 22.1565 24.0039 -28.7656 -16.0478 
27.3541 -23.2418 -15.433 24.8252 -28.745 -11.3876 19.9971 4.08875 28.8772 
-7.61548 -18.1943 17.5886 -6.74699 17.3593 18.997 5.3458 8.64161 29.5875 
-27.1855 57.0297 -38.5069 -5.69372 -16.1513 16.6689 -7.64356 2.53876 20.3706 
-7.5259 60.5005 -8.38164 -6.55197 -6.88088 18.762 -6.3355 5.14818 21.7521 
-11.6639 -12.9856 -13.8742 -8.50524 -11.9298 -15.0594 -8.26916 -18.3776 -12.8722 
-43.8029 10.687 -2.93153 -3.82403 9.10744 22.3484 -5.16776 -4.7745 19.8654 
-5.69807 13.349 21.3391 -11.5318 -4.15092 -17.7689 -9.60769 -8.67403 -16.2671 
-5.86928 64.4992 -11.3075 -36.8272 48.4177 9.56262 -43.8901 46.5696 6.13806 
-42.3938 45.608 12.2826 -4.19243 -10.0921 18.5958 -28.0866 -24.2515 10.9408 
-21.8901 -20.1731 11.5517 -25.5027 -26.1935 6.34315 6.23873 61.191 -25.4979 
-16.3666 44.7103 -9.39295 -9.78965 48.0369 -12.4114 -1.39975 -21.5369 27.3538 
-3.85041 -20.1247 25.2894 -8.502 -24.7925 25.8648 -1.38466 21.0712 18.3755 
-0.0711616 -18.9656 23.0943 -2.22261 -18.0733 20.8166 -5.05507 -19.065 21.8497 
20.8774 32.2084 6.33487 -45.9975 43.5993 8.59272 -45.6729 44.9903 2.797 
38.9326 12.4452 -9.10759 -1.60158 10.59 22.5813 -0.182707 16.0749 21.1421 
-27.1802 44.2772 -10.4094 -30.3956 48.1551 -5.8879 2.21473 18.5398 20.5298 
23.254 3.95725 26.3701 -25.7308 43.1365 -7.8006 -25.7677 40.4951 -8.78631 
3.06268 25.8949 16.333 26.3537 30.0489 0.818079 1.08853 12.0844 22.0433 
28.5289 -13.4682 -22.5352 32.8609 -11.8828 -18.5094 30.9835 -14.4236 -18.7648 
27.6485 21.8604 16.2919 -2.96375 65.1065 -12.3332 0.120299 68.0349 -16.1323 
-1.87292 67.523 -15.0551 -9.67493 -3.74621 -18.9875 -26.2456 48.7771 7.06021 
48.225 -4.39783 -0.373569 2.411 4.60058 30.0727 1.8867 9.53292 28.0272 
-2.22627 4.13638 28.8494 4.46887 -20.7728 24.4662 3.15112 -18.1838 25.6913 
1.42349 0.60975 30.5802 4.2112 13.1688 21.8659 3.04161 -10.7656 27.8974 
4.74682 -7.04831 28.5222 3.3546 -0.485871 30.0785 1.05829 -11.1082 26.4236 
4.42056 -14.9434 26.7941 6.01699 -2.67976 30.384 21.975 29.9209 12.2417 
[...]
POINT_DATA 1001
VECTORS u double
-0.644881 1.72413 -0.364368 -0.65296 2.98056 0.0479521 -1.00961 2.55003 0.115744 
-2.21465 0.796694 -1.17264 -0.56498 0.15445 -0.302691 0.0807217 0.00387497 0.0266055 
0.431917 -0.938549 0.580662 0.263333 -0.470447 0.726457 0.317213 -0.603163 0.499372 
1.02155 0.647521 0.457473 0.652879 0.506904 -0.00160434 -0.453935 -0.125277 -0.0945271 
-0.950567 0.355963 -0.259177 -2.96583 0.369519 -0.584899 -3.58129 0.768925 -0.735933 
2.32125 -2.33868 1.8692 2.91975 -3.96892 2.02637 3.73427 -2.38239 1.2895 
-0.405915 -0.659814 -0.202333 -0.171094 -0.290934 -0.0682016 0.239074 0.191428 0.0751166 
-2.37972 0.586412 -1.178 1.23392 0.55772 0.949231 0.109296 -1.45739 -0.970583 
-1.3755 4.24355 1.75369 0.320671 4.7517 0.204778 -0.540568 3.21496 0.530787 
0.246756 2.87925 0.763979 0.588992 0.526187 0.0915358 -0.964327 0.262545 -0.420153 
1.3206 1.12934 0.302418 -0.248358 2.54509 0.174541 -1.43878 -2.06213 -0.990436 
-1.49474 -1.19 -0.783789 2.68996 3.56695 -0.879442 -4.95608 0.786697 -2.44838 
1.95499 6.91082 -1.85579 0.0946934 2.0918 0.5707 0.0863536 3.17287 1.78273 
0.0983901 3.61512 2.03122 2.6812 0.740053 0.481683 2.71713 1.2773 0.689992 
1.33993 0.629891 0.340263 -0.664931 2.17337 -0.1625 1.42544 1.3008 -4.30354 
0.341442 1.35816 -2.58393 0.681622 0.563606 -3.07667 2.95754 0.336969 0.795219 
1.74355 0.837985 0.32844 1.44818 0.696023 0.272799 -4.01354 0.4121 -2.50772 
-2.71132 1.09325 -2.80112 -2.83693 0.291289 -1.77256 0.572851 0.346059 0.165742 
1.56181 1.34875 -0.991859 -5.92134 -7.22032 2.69043 -2.73499 -1.65898 1.59852 
-5.28713 -3.71748 2.87297 0.561317 0.713542 0.034889 -0.294554 -0.538903 0.222975 
-1.13496 -2.4287 -0.0779644 0.038219 -0.876199 -0.254929 2.41292 -5.69631 1.82935 
2.32969 4.22743 1.15944 2.40237 -4.94795 1.5762 -2.40574 0.584264 -1.09581 
-0.869832 0.237788 -0.466017 -5.24292 -0.498967 -1.94345 -3.20581 0.329165 -2.00304 
-4.08262 -0.388541 -1.51335 1.41715 8.33517 -1.94065 1.71682 5.7328 -3.81545 
-0.219794 0.407971 0.0957431 -0.43239 0.514665 0.0895158 -2.23363 0.218829 -0.216965 
-1.66121 -0.330346 -0.736163 1.0058 2.44957 -0.0022732 1.86187 3.85406 0.0478682 
-4.03524 -0.17425 2.9536 -5.5642 -2.45892 3.79671 -2.79117 -1.41222 1.8823 
3.53657 0.882245 -2.11141 2.8401 2.0516 -1.76801 4.62914 1.38758 -0.47483 
1.14503 1.25521 -0.51596 -0.550569 -0.0888748 -0.539577 -0.87289 0.240442 -0.920642 
-0.503868 0.132218 -1.004 1.41324 -0.303759 0.618747 5.99773 6.01324 3.77794 
8.54952 3.74004 6.69704 5.37013 -1.68366 -2.86857 3.77357 0.0210182 -2.52531 
-1.19526 5.55645 2.77587 -0.081611 0.236482 6.59613 -4.77351 1.30438 3.68189 
0.257484 2.3861 -0.312588 0.069999 2.08267 0.333938 0.469279 1.15043 -0.70783 
0.0428734 -8.13676 0.114598 -0.257059 3.13906 4.67286 0.501183 -7.52902 0.300408 
-1.41857 2.68718 7.18518 -0.374553 -0.384663 -0.249885 -2.02168 -1.54714 -4.60121 
-2.66763 -3.6015 -3.35964 0.228562 1.78493 -0.737558 -2.33932 -0.653459 -0.284722 
3.10362 1.29173 0.475609 0.54596 0.227295 0.0841976 -0.809568 -0.706546 -0.975067 
-1.64164 -2.39717 -1.39146 2.97597 0.704097 -0.106826 1.45575 0.344422 -0.0522558 
2.02923 0.480104 -0.0728415 -0.213341 -9.23555 -2.27266 0.184662 -9.85866 -2.16723 
0.532184 -9.39592 -0.198789 4.66872 -2.73962 6.29817 4.5086 3.37769 6.18233 
3.3425 9.00111 3.86915 1.04775 3.13418 3.8603 0.870634 2.60436 3.20773 
0.892006 2.66829 3.28647 1.25768 1.18707 -1.87878 0.0878591 0.36019 -0.412886 
-0.122006 -0.580218 0.499465 11.1005 10.5614 8.28115 -10.9929 -7.01478 3.74583 
-9.98934 -4.03131 2.18926 3.80574 -2.76664 8.16291 -0.0670506 -0.0763961 0.199882 
-0.000476698 -0.0105193 0.00941751 0.0396591 -0.881031 0.505708 -0.352474 1.86866 -0.702379 
1.01958 1.17446 -2.84072 3.69809 -1.91478 -2.63687 3.04573 2.61106 0.000648486 
4.61236 1.72246 0.906361 2.1725 1.92147 0.462248 0.780074 0.925216 0.123704 
-1.01713 -0.899603 -0.216418 3.3278 0.0896363 -2.10296 4.02975 0.106494 -1.1678 
4.42063 -0.824574 -2.02185 -12.0202 -8.84467 7.48731 -7.5154 -6.22409 5.43957 
3.59772 -1.44808 3.8245 3.96996 -1.1316 4.865 4.33494 -1.48437 6.78959 
3.84574 -3.66047 3.58114 4.76866 -1.15828 3.5225 -0.120774 -8.4166 4.59622 
0.92332 -6.77675 3.78221 -0.0233864 -0.500673 0.0313296 0.169615 2.09212 0.103972 
-9.20039 -6.7698 5.73087 -6.51472 -5.57392 3.58865 -5.60787 -6.73021 7.76258 
3.27593 0.736183 4.33802 5.5186 -1.3263 4.87829 3.60189 -0.925439 7.15853 
3.08291 -1.59646 3.87382 4.84295 1.07939 -2.67376 3.61499 0.779261 0.00152632 
2.8061 2.26929 -1.61259 3.53995 -2.36426 8.17938 4.03515 0.950875 2.94638 
2.65881 -1.14227 3.01963 3.53825 -2.09219 4.65299 3.45436 -0.942536 -2.03343 
4.71437 -0.0807547 -0.998731 0.747023 1.83282 3.85779 1.31505 0.907648 1.39775 
0.644196 2.03198 1.66124 0.155098 3.35217 3.3755 1.70986 0.336137 3.32523 
0.413865 2.80498 2.42626 -5.28725 -8.85123 7.06125 -3.98105 -6.13251 3.73232 
-2.69741 -6.32719 12.5904 -2.6193 2.28784 -1.90658 -2.59081 -0.558484 -0.00109389 
-1.99242 -0.429493 -0.000841238 2.2544 2.22551 3.29322 2.25057 0.984597 2.37534 
-0.134332 -0.146558 0.00537053 -4.48374 -0.591246 -2.05573 -4.2685 -0.396822 -1.60733 
4.85404 13.3676 8.45621 3.27888 3.05054 6.03886 0.096344 -9.38744 -0.50865 
3.68907 -6.54127 -2.96015 1.34487 -6.19704 -0.894855 -3.36129 -5.17782 3.15128 
5.68339 -2.49594 15.2571 -0.285771 -3.09064 8.58867 2.05499 0.955138 3.28115 
3.54617 0.532042 5.48781 5.13289 9.37665 6.31215 9.94427 9.10442 7.22136 
4.49684 -0.136693 8.28741 1.59815 5.28855 6.128 4.39569 -5.57394 -1.37087 
-1.85986 3.78409 1.16614 -3.81455 2.95669 0.791851 -4.06315 4.14146 0.646443 
4.1353 -3.09499 -2.87878 4.65294 -4.41852 -3.20817 2.13909 -1.52367 2.27599 
1.32876 -0.667463 1.05388 -0.519368 0.191058 -0.656259 -0.382885 0.142299 -0.307409 
3.51895 -5.8938 11.999 4.05473 0.731643 8.57626 1.64494 1.48929 3.51768 
-0.866352 0.186011 -0.17803 -0.921555 -0.176227 -5.8324 -1.69293 -7.58302 6.79258 
2.34287 11.2164 6.71437 -7.97728 -1.98984 -1.94267 -0.247661 0.648187 2.33071 
-0.341442 0.282985 0.449845 0.556475 0.24491 1.32653 0.0785649 2.00568 1.80835 
2.46923 -4.91623 4.98859 -0.887387 1.08613 -0.00215806 -1.58579 1.74364 0.187255 
0.431518 -0.800963 -0.187971 1.03209 5.70312 1.82888 -1.50837 5.41454 1.6781 
0.557378 0.848466 0.229468 0.609307 0.474054 0.570449 0.0659391 0.127481 0.103435 
0.924729 -4.57075 11.3609 7.69291 9.47747 8.83647 2.177 -0.133187 0.0953631 
0.600164 0.176625 0.0501341 3.88078 2.99736 -3.94787 -3.09774 -6.67581 2.64126 
1.27071 -1.72826 -1.91378 -0.0278317 0.140622 0.124198 4.23033 0.104404 0.147408 
1.29985 1.17327 2.53968 0.348511 1.05443 1.83198 1.7903 -0.737689 1.30779 
-3.42783 -6.27832 5.52353 2.68647 -2.09964 14.256 -0.73847 -2.47367 0.0520262 
-1.94512 -2.16081 0.186043 1.12048 3.40629 2.78676 0.481908 -0.0960564 0.389337 
5.12904 0.58438 1.37909 -1.40911 -1.71799 -1.27401 1.52157 10.3463 3.44457 
3.61345 -1.99079 2.96011 0.833559 -0.248291 0.552548 3.58513 -1.0679 2.3765 
2.77345 8.46573 3.33057 1.89896 6.86676 1.84615 2.61608 -3.23992 -3.81836 
3.20716 -5.34946 -2.48672 -1.95614 -3.55844 11.8932 3.51547 8.59496 7.92647 
5.38876 -2.38348 8.04703 -0.829388 -6.24993 7.4748 0.839849 -0.0599353 0.579478 
2.97888 -0.212586 2.05537 3.39531 -0.0935631 1.93151 -0.250529 0.0184368 -0.173025 
1.01976 0.39498 0.171643 1.48035 -0.896124 -0.760021 -0.859914 0.111769 1.44866 
-4.37308 -0.509808 1.04813 -4.67819 -0.0483569 0.477448 -1.43064 -0.0603593 -0.272284 
-1.0384 -0.0107336 0.105978 -0.252446 -0.221178 -0.0720463 2.63656 1.26397 4.48984 
-0.524844 -0.583042 0.0501992 3.14954 8.3097 12.2923 3.37501 -4.89871 13.616 
4.95763 8.15901 3.54761 0.918447 -0.582484 1.87843 1.70465 3.2604 3.77619 
3.62928 -4.41321 12.5426 -4.57507 -6.2039 4.43512 0.0855651 -0.761779 -0.63324 
-6.50883 -5.23165 3.8249 -3.76219 -0.967212 -5.06826 -1.2866 -1.21612 -1.41381 
2.27878 0.48576 2.93181 2.40953 -6.00996 9.76381 0.131133 9.30114 12.3957 
0.0347249 5.17547 3.18629 0.367277 -0.158068 1.52395 2.23543 -2.2569 3.70527 
3.90836 -3.84364 6.57247 -5.48293 -4.29375 1.28787 2.95755 5.48882 1.80001 
3.46063 2.46567 -1.59503 3.13454 2.23334 -1.44474 1.71779 3.20669 -0.689834 
1.18823 -3.5683 5.76349 0.104033 -6.01885 9.45826 3.54112 9.35123 8.82472 
0.297607 -4.59687 11.4317 1.14883 -1.03155 2.45621 -0.0622168 -5.43013 13.1964 
-1.61014 -6.81598 12.3836 0.234713 10.0835 8.44066 -3.61312 -4.43049 -3.76425 
6.90752 -3.63458 -3.43598 1.09676 -6.49182 0.0779276 1.99645 1.78702 2.80292 
-0.669225 -2.81769 3.64641 0.316477 7.97251 6.71287 1.32251 1.90575 4.06195 
0.0912144 0.0639879 0.0155509 -2.553 -4.13138 5.16485 -3.04791 -5.67574 12.5133 
-0.141794 -2.26058 -1.37248 -3.1671 -5.66209 8.44517 -4.81993 -5.85439 12.1213 
-1.17095 -2.47337 -1.84276 -1.56578 -3.14886 -2.73084 -2.79985 -0.276943 -3.84841 
0.550228 0.0264131 0.181353 3.04963 4.87837 12.4449 -3.79695 -6.00136 8.834 
-1.63568 9.48355 7.38153 -2.16184 -2.13903 -6.546 -1.96337 -4.45771 -3.21759 
-2.44581 0.689903 -1.15755 1.34473 10.7751 -2.53041 -4.95352 1.49555 -1.91285 
-8.30714 2.50807 -3.20787 -3.94947 -5.57404 6.98252 2.20334 -3.80738 2.24169 
1.32601 0.208542 0.42135 2.03743 -2.95867 2.53208 -1.79269 1.84899 0.700755 
-0.146004 0.24349 -0.0238831 -0.678168 0.830049 -0.00164926 -3.46854 -0.948722 1.55453 
-2.57557 -0.704475 1.15432 0.299076 -2.16591 -0.775242 -1.69255 7.65181 2.56615 
-6.55783 -1.79371 2.93908 -5.84858 -1.51891 2.03631 -2.94644 -0.765208 1.02587 
0.667839 1.75186 0.275458 -4.97763 2.53908 -1.72505 -2.57481 1.73872 -1.15972 
2.18973 0.923918 -2.67991 0.663059 4.23028 11.9251 0.0560951 7.23756 7.9469 
3.0581 2.27119 -2.38347 0.742766 5.15436 -3.06656 0.0497311 6.41645 7.04532 
1.80321 0.821459 3.82271 1.75739 3.02938 -5.16604 2.85869 3.91728 -4.85946 
-1.06769 5.0249 2.03021 0.978687 2.15117 -0.224246 2.02517 1.43021 12.1057 
6.11422 1.43275 -5.0896 6.47338 -0.703218 -2.91757 6.46461 -2.46636 -3.95087 
1.35791 1.22568 2.65312 -1.67823 -2.738 -3.41361 -3.2797 -0.22666 -3.3022 
-3.35644 0.919618 -1.79186 -2.81734 -2.93805 -5.59533 5.18144 0.59035 1.39318 
-0.794209 -0.019601 -0.0276746 1.42508 6.13296 4.43162 2.27845 1.39881 6.31448 
2.36567 6.47231 7.01652 -1.53576 -8.19893 5.38926 -8.33899 -2.2809 3.73736 
1.26093 10.0849 4.34832 1.96947 6.02083 9.41236 -9.51856 -4.63081 2.7334 
5.87021 -3.58228 11.6248 2.22279 11.1232 3.93311 -8.20955 -3.99397 2.3575 
-9.6831 -3.09848 3.94655 7.03763 -4.12971 9.49386 0.801543 1.84231 0.571024 
1.78305 8.92266 3.15502 -0.182221 0.203853 0.39284 1.01069 0.669945 1.51287 
3.68216 1.86164 5.80452 -2.03482 2.6611 -0.464913 1.32424 -2.94116 10.3614 
2.26416 1.11764 0.239105 -0.246079 -0.0679126 -0.0512432 -1.85098 -0.957856 -0.187245 
0.242778 -1.36302 -0.670868 4.53576 -1.80363 3.68741 2.57937 -2.42961 1.50312 
1.44086 -2.20766 -0.954962 -2.92792 0.218051 -3.19027 1.55414 2.01315 2.85339 
2.5218 0.836089 -1.78908 -2.32566 -0.30427 -4.82878 -0.171378 -0.61523 -6.34579 
-2.48851 -2.17668 -6.88997 0.199162 -0.486424 0.515511 -0.0019464 -0.0204411 0.0648741 
2.55733 -2.01637 1.82145 2.50034 -1.88558 2.87646 1.19712 0.0853439 1.59994 
-4.57153 3.29176 -0.4675 -1.43885 1.10256 -0.0710392 -3.94544 3.42651 -2.16231 
3.28046 0.301979 6.71502 5.98761 6.0031 3.77157 1.5224 -1.99385 2.47697 
1.59819 -0.404717 4.16091 2.84652 -0.973048 3.15276 -2.1411 4.05081 10.4632 
2.53093 3.72137 6.45827 1.7837 0.191676 2.47094 1.95768 -0.79634 1.35371 
2.50894 -1.06846 3.05306 -0.209649 1.17702 0.579323 0.149652 -0.276047 -0.335667 
2.95362 5.83216 8.08227 3.18835 -1.27359 2.21006 1.1075 1.21719 2.91797 
3.63292 -1.40366 3.84086 3.47785 0.254272 2.02223 2.78702 1.00805 2.19182 
2.26798 0.0113262 2.27272 -0.775076 1.53995 2.26693 7.06373 -2.36069 0.684187 
4.97423 2.47177 3.81613 7.9524 4.6379 2.5089 -3.85796 3.35276 0.263281 
0.1758 0.154327 0.174423 6.80421 1.84668 5.69046 6.63921 3.87204 2.09461 
0.851522 0.866282 -1.28266 0.566634 0.756412 -1.1245 8.55384 5.07609 4.68901 
1.20114 -8.32469 -0.526604 0.559507 -4.41446 -0.449662 -0.159962 -6.90137 -1.52408 
-13.266 -3.71951 9.622 0.144333 0.520043 -0.360053 0.718782 1.09552 -1.1861 
-0.0106877 0.668356 -0.594372 3.31421 -0.236516 2.28673 3.13458 -0.395782 1.90589 
1.74918 -0.070301 2.08767 6.64941 -2.79881 -0.307038 5.92481 -3.06012 -1.56834 
7.04044 -6.05556 -0.90063 6.50757 2.38723 1.94833 1.90664 -0.215625 1.89466 
3.41832 -0.0944201 -0.529965 4.71084 3.22938 1.09113 1.30378 0.0233947 2.24199 
1.35561 -0.436211 2.91778 1.95326 -0.338833 2.59336 0.429751 1.0658 0.969136 
5.67409 3.88882 3.39867 5.25024 3.06198 1.6564 3.88514 1.07236 0.697975 
-0.0131756 -0.389087 -0.578265 -0.154675 -0.753875 -0.423048 -0.892363 0.895393 -1.25203 
-4.19275 3.42034 -2.52049 0.835979 1.17035 1.86581 0.985293 1.08747 1.45178 
-2.66819 2.67725 -3.74361 -2.47493 1.12744 -2.23331 1.25264 -1.13925 0.907652 
3.76546 3.65174 2.29743 3.23711 2.21911 0.749788 1.711 0.241463 2.98523 
-1.7577 -2.08474 -0.278737 3.8865 1.63053 1.28135 2.00961 0.9447 0.510321 
-0.349634 -1.44155 -1.36934 0.483714 -0.485356 0.678675 1.2648 0.0516122 1.60917 
0.941635 -0.874496 1.13537 3.21173 -1.30646 2.22086 2.5831 -1.24008 4.80542 
0.507801 -3.72703 2.08012 0.430223 -3.26398 0.818367 4.27376 2.34919 0.332445 
1.31538 0.649833 1.66866 0.863764 0.617441 1.36302 1.70488 0.745863 1.79939 
2.20069 -0.249584 2.18696 1.88021 0.662125 1.72865 2.46506 1.5375 1.83719 
1.42377 0.899695 1.50407 -2.5742 -1.37669 1.50349 1.33819 -0.25823 2.21261 
-2.37444 2.65631 5.11892 -0.426231 0.194166 -0.38462 2.61356 -0.267982 1.80404 
-2.4601 0.92971 -2.49337 -3.55148 2.17633 -2.37349 -3.67041 0.0344397 -1.88826 
2.70107 -0.850185 2.12995 3.15122 -2.2196 -4.17174 4.18918 0.148029 1.93405 
-0.299358 -0.492564 0.396173 -0.0238527 -0.250727 -0.109565 4.5026 0.0800546 0.293512 
-4.07385 4.23284 -1.53256 -3.22872 2.73221 -2.38688 0.403328 0.370146 0.432517 
-0.24668 -1.01707 -0.966121 -0.886474 0.258907 -0.0055315 1.11087 -0.566252 -0.317387 
5.955 2.40271 4.42155 -1.56764 0.42856 -1.29941 2.02812 1.14374 1.9777 
1.8087 3.43164 0.728814 -0.821436 -1.54611 -0.334432 -0.187948 -0.341048 -0.0935381 
-0.371953 0.0741396 -0.300504 -0.457416 -2.442 1.60516 2.83093 1.99162 -0.231808 
1.42403 0.090415 1.0755 0.833614 -0.112277 0.787559 0.558906 -0.098255 0.56477 
4.1879 -0.222895 -1.6807 -0.829386 -0.213225 -1.11731 -3.14613 -0.773086 -3.17148 
0.788344 0.333535 -0.414638 -1.83316 -1.06855 -2.79403 3.15115 0.786098 -1.88131 
2.81417 -2.38522 3.53182 -3.43334 0.942412 -1.55822 0.124864 0.304578 -0.0226761 
-0.250842 -0.611872 0.0455543 0.46385 0.181117 0.0901387 0.937536 0.366075 0.182189 
-1.00808 -1.7631 0.200723 0.211185 -0.0767934 0.0278874 0.330911 -0.176149 -0.0735857 
0.600335 -0.129035 0.26284 3.86922 -2.68426 -4.93787 -2.09906 -0.467496 -0.970714 
-0.0574835 -0.000980003 -0.0438602 -0.604851 -0.0598278 -0.831371 2.53487 -0.0374268 3.16823 
6.47061 -4.94754 -1.35356 6.65649 0.249612 -4.36036 3.40208 1.95661 -3.97013 
4.69489 0.896124 -2.80781 2.70555 -0.739622 1.44951 0.0962013 -0.486064 -0.429295 
-0.0896691 -2.77398 -3.34558 2.84649 -7.63122 1.04199 -2.07185 -2.23911 0.80651 
-3.06226 -5.35576 0.609736 5.13778 -1.09561 -1.25144 6.16576 -2.42812 -2.2253 
2.41385 0.407765 -2.49553 3.55355 -0.407355 -2.17299 -2.23771 -2.21727 -0.0449561 
-1.75489 -0.328944 -0.325875 -0.188209 -0.146128 0.000462492 0.0533208 -10.1195 0.142523 
0.0520191 -9.8725 0.139044 5.5505 -2.15478 -4.74205 -5.69005 0.171 -7.23271 
0.720288 -9.76885 -0.43794 1.15195 1.07444 -2.62095 4.48075 1.58993 -3.12022 
1.61678 1.40186 0.92602 1.34451 0.205208 0.779372 1.53296 1.50615 -1.59797 
0.976303 0.442789 -1.21097 1.17066 1.04585 0.633959 -0.0829291 0.0233923 -0.0392486 
-2.02301 0.73563 -0.267143 -0.545883 2.28479 1.2767 -0.538849 -0.314096 -0.821292 
9.39672 0.382773 -2.32809 2.55555 1.62448 -3.01359 5.26705 -1.23746 -3.28874 
-3.77558 4.25812 0.368191 1.36748 -1.9858 1.69948 1.24893 -2.15816 1.27067 
1.60229 -2.35091 1.70264 -0.560632 -0.505221 -0.261463 -4.75688 1.29983 3.66906 
-5.39138 1.11349 6.33121 0.649749 -4.50319 -0.284864 -3.16836 2.20344 -2.04973 
0.957481 -5.40663 -0.239032 0.753295 0.999466 -1.20899 1.4599 1.93699 -2.34304 
1.4562 -0.635768 2.61248 3.25211 -2.74716 5.8544 0.547803 -3.40112 2.34813 
1.19794 -3.51351 5.53883 0.935912 0.74075 -1.49312 2.75885 -10.1886 -0.0353779 
1.41094 -6.50151 -0.93882 2.78707 -5.83532 -3.84697 3.3432 -6.32249 -2.07786 
-9.37888 0.0715969 -2.10007 -8.66227 0.0661264 -1.93961 1.02194 -5.2372 -0.249239 
-0.9772 -4.01307 -1.58791 -1.72142 0.625963 -0.227317 3.48784 0.943512 2.23854 
0.0768565 0.2684 3.54177 2.35683 0.242417 5.29904 0.255961 0.0444324 2.36225 
3.03331 1.2519 0.467606 1.41712 2.51355 0.619567 2.19702 -0.219504 1.20617 
3.04842 1.99993 0.262895 3.62679 -7.03577 0.167401 0.096608 -0.132373 0.0908994 
-0.574174 -0.872121 4.18925 -0.493342 -0.749343 3.59948 0.256304 0.414177 0.516889 
-0.851107 -0.456308 0.148062 0.137328 -0.638402 -0.31893 0.0865754 0.0287103 0.362785 
-3.07829 -0.370055 -5.10422 -2.49416 0.905599 -4.66572 0.174494 0.0430349 -4.53186 
8.47827 0.69469 2.62768 -7.71756 1.32521 -4.01147 -0.731336 -2.36405 -0.565137 
1.11102 -1.95294 -0.719022 0.0403186 0.0151572 0.00436455 1.29377 1.68694 1.12949 
-0.339063 -0.00602843 -0.0221026 -0.79686 0.129393 0.357489 2.24082 13.4749 -0.611776 
9.54832 3.31469 1.72057 -3.68777 0.765996 -3.03996 3.45755 -0.561432 -1.55113 
1.21583 2.2354 -4.37157 3.18929 1.81837 0.362933 0.545122 2.12842 -1.92157 
0.547355 2.19506 -0.834927 0.719888 2.36457 -0.56547 0.384251 -0.098306 0.202024 
0.742724 0.822427 0.160458 -0.013617 -0.0126577 0.0434557 0.238031 0.356265 -0.561587 
1.56549 1.71614 -0.705426 1.59865 5.01585 0.469827 -1.13735 -1.63012 -0.782941 
-0.551641 -1.08813 -0.757656 -2.18238 -0.0289242 -2.25774 -0.120594 6.36021 -1.07338 
-0.555435 0.209415 -1.4642 -0.748446 0.034473 -1.67617 -0.812079 0.0373007 -1.70869 
2.23498 2.3195 0.0408455 1.61993 1.93907 -1.34579 -2.69836 0.589153 0.875964 
1.35438 2.3093 -0.300554 0.625126 1.60553 0.705886 -0.613174 -1.11266 -0.305165 
1.66268 1.44311 1.41441 -2.69316 3.59995 0.175054 1.33824 -7.68341 -1.29273 
-5.30508 -7.35681 1.59448 -2.36411 -6.13656 0.739624 1.0522 1.69724 0.688299 
0.722292 0.928057 -1.06862 0.0820259 0.00516301 0.049055 0.624799 1.51012 -0.939516 
4.11673 -2.00499 -0.76498 -3.88749 -3.5886 4.53303 -5.74513 -4.33536 7.95606 
-0.499835 -0.0786093 -0.158826 -2.85993 -5.1973 1.86766 -1.87519 -3.97742 1.56121 
0.891024 0.710491 0.720352 -8.75079 -3.42028 2.37406 -7.43403 -2.84713 5.01463 
0.00619797 -0.000716339 0.000306228 -0.296551 0.299399 -0.491538 -0.530968 0.228517 -2.20315 
-0.365119 0.203739 -0.641977 -0.638948 0.268006 -0.78201 -0.656422 0.396 -1.20893 
1.43816 3.69649 9.92909 0.0612696 -0.0415619 0.00748475 -1.69921 -2.71166 0.700289 
-1.64363 -3.25543 1.11967 -1.2532 -2.65327 0.459698 0.508915 -0.879406 0.517772 
2.2055 -4.17603 1.40212 -1.1453 0.722208 0.139077 -2.015 0.0288407 1.4893 
-2.35977 -0.80028 -1.37132 -4.56181 -3.02871 1.35263 -4.23055 -2.53276 0.620976 
-1.74213 -6.39831 1.78378 1.04179 -6.39214 -0.437154 -0.365495 -6.12811 0.669082 
0.603273 -1.14709 0.949702 -1.47676 -3.01602 -4.05977 -0.908205 2.34259 -2.13997 
-0.25151 0.326185 -4.2025 -0.192082 0.438874 -3.50908 -2.41881 0.673196 1.88933 
-3.91005 -4.8075 1.76815 3.87006 -5.70661 0.47556 3.10158 -4.52416 -0.400649 
-1.08616 1.03802 0.749727 -0.049849 -0.105294 -0.0784486 -0.42383 -0.0331727 0.110376 
-0.116097 1.83542 2.71138 0.021505 0.0295882 0.664456 -0.515554 1.01467 4.86951 
-0.880696 0.192391 -1.72323 -0.76404 0.0350941 -1.60761 -5.75014 1.22186 -1.66564 
-5.20986 -2.83964 1.91527 -4.8899 -2.78934 0.134414 -5.45706 -8.8392 2.8234 
3.13717 -3.99155 -3.12162 -2.94249 0.437721 1.87641 -10.2942 -1.51392 -1.79535 
-6.44403 1.01271 -1.85386 2.76489 1.22491 2.13972 1.28772 -1.86998 1.60036 
0.466502 0.48115 0.430784 -1.10358 -0.520822 -1.10456 4.8899 -3.7731 2.92443 
1.74674 -2.32721 5.99466 -2.37559 0.281239 -2.87825 0.702065 -0.198215 0.00532402 
1.57704 -1.33018 1.0739 2.12158 -1.63703 1.26882 1.58145 -2.29652 1.96539 
-0.557002 -0.0469008 2.34455 4.79509 -1.40604 1.42275 0.728124 1.58558 1.18838 